56
Lattice="8.48002 0.0 5.192514674852769e-16 -5.192514674852769e-16 8.48002 5.192514674852769e-16 0.0 0.0 8.48002" Properties=species:S:1:pos:R:3:momenta:R:3:forces:R:3 energy=-349.2754010511795 free_energy=-349.2754010511795 stress="0.4733705252401903 0.00467858685313966 3.113262285626112e-16 0.00467858685313966 0.4733705252401891 4.3130516693849466e-16 3.113262285626112e-16 4.3130516693849466e-16 0.47092893195526747" pbc="T T T"
Fe       3.18000750       7.42001750       1.06000250       2.01018003      -0.16899440       0.81620222       0.01638362       0.09950396       0.07101047
Fe       1.06000250       5.30001250       1.06000250      -0.26716731      -0.86218852       0.95783106       0.04146045      -0.04146045       0.00000000
Fe       3.18000750       3.18000750       5.30001250      -1.62043477      -1.16692586       0.26151587      -0.04146045       0.04146045      -0.00000000
Fe       1.06000250       1.06000250       5.30001250       0.91387674       1.62458556      -1.09528852      -0.01638362      -0.09950396       0.07101047
Fe       5.30001250       7.42001750       7.42001750       1.20073735      -2.35339173      -2.07896472       0.10286141       0.10286141      -0.00000000
Fe       5.30001250       5.30001250       5.30001250       0.19151741      -2.52036245       2.28097983       0.09950396       0.01638362      -0.07101047
Fe       7.42001750       1.06000250       3.18000750       0.18498356       3.03951888       2.04424300      -0.10286141      -0.10286141       0.00000000
Fe       7.42001750       3.18000750       1.06000250       1.65801039      -1.19204085       0.41668866      -0.09950396      -0.01638362      -0.07101047
Fe       4.24001000       0.00000000       4.24001000      -1.67457296       0.67432180      -0.18408572       0.00746579       0.00349211      -0.12672938
Fe       2.12000500       2.12000500       2.12000500      -1.08939462       0.36872147      -0.80428632       0.52574811       0.06520029      -0.40185524
Fe       4.24001000       4.24001000       0.00000000      -0.37718136      -0.66337888      -1.15008656      -0.06520029      -0.52574811       0.40185524
Fe       2.12000500       6.36001500       6.36001500       0.38398772       0.37693566      -2.83890332      -0.52574811      -0.06520029      -0.40185524
Fe       0.00000000       0.00000000       0.00000000      -1.15641749      -0.52472402       0.18319396      -0.00746579      -0.00349211      -0.12672938
Fe       6.36001500       2.12000500       6.36001500      -0.64576982       1.47981917       0.32443215      -0.00349211      -0.00746579       0.12672938
Fe      -0.00000000       4.24001000       4.24001000      -2.37251926       1.40329414      -0.72957100       0.06520029       0.52574811       0.40185524
Fe       6.36001500       6.36001500       2.12000500       0.59143614       0.46296776      -0.35635496       0.00349211       0.00746579       0.12672938
Ni       1.06000250       7.42001750       3.18000750      -0.02124004       1.48931558       0.92573098      -0.02507265       0.02131221       0.01993890
Ni       3.18000750       5.30001250       3.18000750      -1.90548174       1.92610076      -0.73606332      -0.02358309      -0.02358309       0.00000000
Ni       1.06000250       3.18000750       7.42001750       1.18923863      -0.66755147      -0.76632410       0.02358309       0.02358309      -0.00000000
Ni       3.18000750       1.06000250       7.42001750       2.17436528      -0.41529329      -1.50282297       0.02507265      -0.02131221       0.01993890
Ni       7.42001750       5.30001250       7.42001750      -0.53167888       0.03918304       0.17870263      -0.02131221       0.02507265      -0.01993890
Ni       7.42001750       7.42001750       5.30001250      -1.69848607       1.46454954       0.96407880      -0.01415542       0.01415542      -0.00000000
Ni       5.30001250       3.18000750       3.18000750       0.32867015      -2.41327414      -1.52361395       0.02131221      -0.02507265      -0.01993890
Ni       5.30001250       1.06000250       1.06000250       0.81234094       0.18857828       0.38632622       0.01415542      -0.01415542       0.00000000
O        7.34293412       1.13708588       1.13708588       0.06776788      -0.14465562      -0.67624525       0.82089121      -0.53050164      -0.48904559
O        1.13708588       7.34293412       1.13708588      -0.47985134       0.05783058       0.08203039      -0.49252420       0.47666466      -0.77907140
O        5.37709588       1.13708588       3.10292412       1.02009785       0.14513422       1.02412129      -0.43315995      -0.61270139       0.59138268
O        3.10292412       7.34293412       3.10292412      -0.84729361       0.55020583       0.52462543       0.55849833       0.54532146       0.41518641
O        3.25709088       0.98291912       0.98291912       0.01783474      -0.43789164       0.43348645      -0.60803675       0.11357017       0.57486762
O        0.98291912       3.25709088       0.98291912       0.29305710      -0.59591891       0.55443898       0.19551442      -0.54976716       0.95187997
O        0.98291912       0.98291912       3.25709088      -0.33063935       0.32418072       0.88557016       0.56349083       1.00488750      -0.54543286
O        3.25709088       3.25709088       3.25709088       0.28012261       0.16444259       1.06117847      -0.75010140      -0.63615607      -0.10985207
O        7.34293412       5.37709588       5.37709588       0.10337052       0.04035156       0.17995595       0.11357017      -0.60803675      -0.57486762
O        1.13708588       3.10292412       5.37709588       1.71527486      -0.34760787      -0.07591399      -0.54976716       0.19551442      -0.95187997
O        5.37709588       5.37709588       7.34293412      -0.11476977      -0.77461767       0.00441781      -1.00488750      -0.56349083       0.54543286
O        3.10292412       3.10292412       7.34293412      -0.96433023       0.46195991       0.31920745       0.63615607       0.75010140       0.10985207
O        3.25709088       5.22292912       5.22292912      -1.13675100      -0.60059847       0.58090097      -0.19551442       0.54976716       0.95187997
O        0.98291912       7.49710088       5.22292912       0.28390804       0.42483662      -0.77960071       0.60803675      -0.11357017       0.57486762
O        0.98291912       5.22292912       7.49710088       0.05837716      -1.25663365      -0.07469084       0.75010140       0.63615607      -0.10985207
O        3.25709088       7.49710088       7.49710088       0.77476579      -0.16706147      -0.67163512      -0.56349083      -1.00488750      -0.54543286
O        3.10292412       1.13708588       5.37709588       0.31469119       1.33694295      -0.21197768       0.49252420      -0.47666466      -0.77907140
O        5.37709588       7.34293412       5.37709588       0.11429304      -0.84691183       0.24358605      -0.82089121       0.53050164      -0.48904559
O        1.13708588       1.13708588       7.34293412       0.31062149      -0.48871520      -0.19441502      -0.55849833      -0.54532146       0.41518641
O        7.34293412       7.34293412       7.34293412       0.73257127       0.18621153      -0.52422430       0.43315995       0.61270139       0.59138268
O        7.49710088       0.98291912       5.22292912      -0.66573598       0.12458815      -0.17943974      -0.53050164       0.82089121       0.48904559
O        5.22292912       3.25709088       5.22292912       0.58344519      -0.71826141      -0.11351536       0.47666466      -0.49252420       0.77907140
O        5.22292912       0.98291912       7.49710088      -0.00542373      -1.07875099       1.29960923       0.61270139       0.43315995      -0.59138268
O        7.49710088       3.25709088       7.49710088       0.39205175      -0.03735277      -0.29780906      -0.54532146      -0.55849833      -0.41518641
O        3.10292412       5.37709588       1.13708588       0.17983772      -0.14064914       0.60759417       0.54976716      -0.19551442      -0.95187997
O        5.37709588       3.10292412       1.13708588      -0.95753052      -0.01099895       0.73141419      -0.11357017       0.60803675      -0.57486762
O        1.13708588       5.37709588       3.10292412      -0.44495037       0.51702948      -0.65629664      -0.63615607      -0.75010140       0.10985207
O        7.34293412       3.10292412       3.10292412       1.18796966       1.48422957       0.35898169       1.00488750       0.56349083       0.54543286
O        7.49710088       5.22292912       0.98291912      -1.54795523      -0.42277415      -0.39710301      -0.47666466       0.49252420       0.77907140
O        5.22292912       7.49710088       0.98291912      -0.90477298       0.71322274      -0.67495099       0.53050164      -0.82089121       0.48904559
O        5.22292912       5.22292912       3.25709088       1.39317874       0.69903735       0.20816510       0.54532146       0.55849833      -0.41518641
O        7.49710088       7.49710088       3.25709088       0.29776748      -0.75057013       0.45497403      -0.61270139      -0.43315995      -0.59138268
56
Lattice="8.48002 0.0 5.192514674852769e-16 -5.192514674852769e-16 8.48002 5.192514674852769e-16 0.0 0.0 8.48002" Properties=species:S:1:pos:R:3:momenta:R:3:forces:R:3 energy=-349.45941566298245 free_energy=-349.45941566298245 stress="0.48452424640382935 0.006018891677606199 -0.002553326491168399 0.006018891677606199 0.48530564719362135 0.0010261380033218218 -0.002553326491168399 0.0010261380033218218 0.48060532032391146" pbc="T T T"
Fe       3.20985204       7.40879220       1.07542527       1.02068539      -0.74218359       0.70521531      -0.05772961       0.27625047      -0.24649186
Fe       1.05350712       5.28871137       1.07745950      -0.40022682      -0.28872424       0.66043450       0.07641836       0.21925416      -0.32326461
Fe       3.15627620       3.15901742       5.30864291      -0.86293368      -0.82183198       0.14149498      -0.02901785       0.37171052      -0.39855378
Fe       1.06885631       1.07868910       5.27289661       0.25626765       0.73676413      -1.30030458      -0.10820683      -0.03083195       0.39239775
Fe       5.31445015       7.37829594       7.38612578       0.81978037      -2.45700942      -1.71709508      -0.24726791       0.43170097       0.19884157
Fe       5.30439733       5.25398863       5.33815826      -0.03610608      -2.34289029       2.00064045       0.01063921      -0.02782070      -0.71474095
Fe       7.42381158       1.10683701       3.21505558      -0.04951650       2.78749411       2.11273490      -0.07133609      -0.48520369      -0.06103431
Fe       7.45303489       3.17243181       1.07262940       1.80050415      -0.30400418       0.63660247      -0.29168836       0.08014047      -0.26503110
Fe       4.22211698       0.01224242       4.24465034      -0.26113815       0.55472659       0.65203768       0.27386490       0.04078805      -0.11404945
Fe       2.11528451       2.13233046       2.10882715       0.20771702       1.26080404      -0.82185150       0.89520827      -0.35942173       0.19464984
Fe       4.22914916       4.22839406      -0.02011451      -0.69032770      -1.27920265      -0.76922646      -0.20084809      -0.62477025       0.80821706
Fe       2.11897335       6.37153865       6.30561938      -0.82066078       0.99256145      -3.49485761      -0.47945224      -0.15326419       0.28997766
Fe      -0.01253109      -0.00849521       0.00241293      -0.64805757      -0.51990729      -0.24353181       0.23821187       0.21301601      -0.35453711
Fe       6.35089295       2.14369062       6.36245449      -0.58308818       1.15197533       0.48996334       0.16383321      -0.42471893       0.36003873
Fe      -0.02976953       4.27484932       4.22968089      -1.28802902       2.10324385       0.00933908       0.75257660       0.86977414       0.85666869
Fe       6.36218218       6.37015019       2.11671188      -0.13255529       0.86954638       0.03081615      -0.09354326      -0.01858976       0.13183934
Ni       1.05221659       7.43576011       3.19727102      -0.62449302       0.65042578       1.09361620      -0.26458271      -0.01699336      -0.14467558
Ni       3.15101440       5.32521619       3.16930586      -2.00952146       0.82556292      -0.37065459       0.19452457      -0.19539084       0.28933507
Ni       1.07086375       3.16691200       7.41015355       0.43324602      -0.64425415      -0.37650385       0.12424477       0.04165059      -0.16601736
Ni       3.21623456       1.04980827       7.39182211       2.81405577      -1.03057363      -1.91490455      -0.26869704      -0.19537838       0.28760278
Ni       7.41502816       5.29396029       7.42108656       0.03772191      -0.20623119      -0.06586645       0.24447165      -0.09353078       0.04396249
Ni       7.39809391       7.44022617       5.31653817      -0.94144567       1.01022023       0.82976112       0.08905850      -0.25559809      -0.28063477
Ni       5.30519584       3.14812937       3.16146918       0.29642217      -1.51593179      -0.74745579      -0.17940163       0.30783579       0.17175417
Ni       5.30538229       1.06025420       1.06505262       0.26892470      -0.19680680       0.27118359      -0.15450786      -0.08725087      -0.23588362
O        7.35928026       1.13772032       1.09145127       0.49535260       0.05295529      -0.42308277       0.33530825       0.20337275       0.55879906
O        1.09430172       7.35973675       1.11753621      -0.74546640       0.27631724      -0.40150454       0.18416389      -0.30534328      -0.32562855
O        5.40273856       1.12582492       3.18445281       0.19343497      -0.48387787       1.55819379      -0.16406379      -0.43927563       0.20411089
O        3.07907320       7.38790946       3.14260752      -0.27382925       0.83471577       0.48353667       0.38117495       0.43881409       0.00679220
O        3.24063903       0.95770801       1.03280835      -0.32018068      -0.13938578       1.02730639      -0.46692457      -0.03940185       0.32274382
O        0.99314013       3.21100788       1.04111622      -0.13507744      -0.91427372       1.20037745      -0.42124352       0.38224280       0.40265369
O        0.99297634       1.03038279       3.28140807       0.40548748       1.20571626      -0.23041239       0.18433158       0.61749042      -0.57620391
O        3.25308237       3.24629983       3.31769129      -0.54873757      -0.63708059       1.19113784      -0.62142345      -0.60841848       0.83664507
O        7.35400661       5.38212392       5.37003863       0.03209318       0.07282108      -0.27337316      -0.16975104      -0.54212749      -0.28059336
O        1.21765133       3.09031081       5.35193424       1.07871295      -0.12353136      -0.57867929       0.04819121       0.18387200      -0.52164460
O        5.33848792       5.31026572       7.35785539      -0.81590400      -1.00064177       0.46262493      -0.29352739       0.21789238      -0.00929358
O        3.06066685       3.13983426       7.37469980      -0.33863816       0.59125771       0.46469809       0.66590713       0.26126656      -1.08899447
O        3.18750039       5.20490884       5.28666960      -0.70981327      -0.26075528       1.43625512       0.85759952      -0.91692142       0.18837625
O        1.01472371       7.49726926       5.19554376       0.64808331      -0.17921440      -0.02463651       0.30069240       0.26401389       0.27911069
O        1.02657719       5.16320061       7.50247104       0.95870999      -0.77825404       0.34720858       0.20462029       0.58238126       0.34299915
O        3.28858740       7.46187412       7.41729527       0.12087025      -0.81997102      -1.45902812      -0.48892749      -0.66267083       0.18223453
O        3.12431398       1.20589345       5.34953447       0.37502173       1.04205749      -0.76987500       0.44225118       0.22601023      -0.51545431
O        5.36523545       7.31392244       5.37280189      -0.41755888      -0.17250373      -0.48852628      -0.73451687       0.54683589      -0.16124256
O        1.14292601       1.09303807       7.34862992      -0.24291704      -1.08933017       0.23725294      -0.35068888       0.06464423      -0.21967136
O        7.39689000       7.36687521       7.33222585       0.96757056       0.26627581      -0.06860021      -0.57830609      -0.01896689       0.29832011
O        7.45445365       1.01320505       5.23014057      -0.80171753       1.03060103      -0.17602248       0.06127370       0.58090521       0.02332084
O        5.26778341       3.21961889       5.22915104       0.78823207      -0.65274249       0.30856525      -0.94585829       0.30134180       0.81698340
O        5.23174720       0.94804757       7.53307650       0.36659263      -0.02317136      -0.05881454       0.59472878       0.61465245      -0.79707688
O        7.50341309       3.23662402       7.46192542      -0.06149031      -0.45341718      -0.80188952      -0.42359033      -0.35548183       0.20483848
O        3.12690386       5.37987276       1.15037641       0.44477301       0.05397323       0.03915557      -0.20907935       0.11702658      -0.89019858
O        5.31798454       3.11781551       1.13928633      -0.61612030       0.50613330      -0.60620487       0.53538417       0.19773178      -0.52724138
O        1.09725969       5.38215072       3.07018191      -1.02725610      -0.28799965      -0.45045092      -0.27112750      -0.50696248       0.09612876
O        7.43715448       3.19071167       3.14548114       1.89517485       1.10108226       0.63932418      -0.06072085      -1.01268299      -0.64922081
O        7.40295525       5.21677119       0.96876762      -1.33704331      -0.07188914       0.05818592       0.78263253      -0.16592408       0.43331862
O        5.18938190       7.50067174       0.95619907      -0.06309995      -0.63222587       0.02610089       0.49335356      -0.73321497       0.46428524
O        5.31855901       5.30018516       3.25241571       1.62624172       1.61601434      -0.19383761      -0.44586899      -0.09339839       0.53897295
O        7.49143834       7.45123281       3.26077742      -0.54872636      -0.52342901      -0.28657290      -0.04276715       0.71693863      -0.35854006
56
Lattice="8.48002 0.0 5.192514674852769e-16 -5.192514674852769e-16 8.48002 5.192514674852769e-16 0.0 0.0 8.48002" Properties=species:S:1:pos:R:3:momenta:R:3:forces:R:3 energy=-349.23766217622904 free_energy=-349.23766217622904 stress="0.48416609469061717 0.008021174262982947 -0.006392076816049574 0.008021174262982947 0.4860567724307627 0.0013255412805426336 -0.006392076816049574 0.0013255412805426336 0.4792929753614031" pbc="T T T"
Fe       3.20994899       7.40538680       1.08575994      -0.16266098       0.13233403       0.16118941       0.11488545       0.38078712      -0.06147663
Fe       1.05167241       5.28530695       1.08855651      -0.07728735      -0.09131675       0.34147295      -0.14755472       0.26007612      -0.69978005
Fe       3.14729387       3.15068620       5.30299963      -0.22124138      -0.44180278      -0.46680710       0.61562482       0.75061381       0.20932389
Fe       1.06873397       1.09537217       5.26072162       0.02828842       1.03683446      -0.31786349      -0.27943090       0.28488686       0.10961344
Fe       5.32195582       7.34242614       7.35908299       0.05580230      -1.67645757      -1.52895432      -0.42479528       0.48248000       0.14363520
Fe       5.30597286       5.20709834       5.37362576       0.43438494      -2.47799698       2.07455733      -0.08308508      -0.04169310      -0.82011702
Fe       7.42468022       1.14499611       3.24878540       0.20988093       1.55985157       1.58110052       0.15350342      -0.62503429      -0.15327261
Fe       7.48023543       3.17228486       1.08425039       1.49299994       0.25458319       0.97532373      -0.28059503       0.03819491      -0.25810970
Fe       4.21195556       0.02675285       4.26504462      -0.70964912       0.92447827       1.61474408       0.60626565       0.06773659      -0.27169322
Fe       2.12389154       2.14631054       2.10062202       0.99732982      -0.11050863      -0.07563336       0.82315773      -1.09359527       1.15824541
Fe       4.21471362       4.19574861      -0.02775045      -1.34890135      -2.11347552      -0.25875425      -0.36049163      -0.27514821       0.80537640
Fe       2.10941420       6.38696250       6.24794734      -0.67458978       0.87439028      -2.89675667       0.12012153      -0.65487968       1.30588998
Fe      -0.01851870      -0.01689802      -0.00131288      -0.21944538      -0.41024022      -0.52637760       0.20290706       0.73894701      -0.34178357
Fe       6.34864670       2.15766724       6.37633310       0.24735902       0.51874981       1.25153566       0.34609707      -1.17414171       0.67186852
Fe      -0.04523326       4.31745557       4.22560662      -0.10716030       2.81958335       0.11039818       1.19811473       0.96977797       1.09953797
Fe       6.37435780       6.39064785       2.11922798       1.34228195       0.94248097       0.12560108       0.15941680       0.30848878      -0.29377994
Ni       1.03711192       7.44432502       3.20610473      -1.44576511       0.09101064       0.10543376      -0.43027405       0.40479334      -0.53513985
Ni       3.12002726       5.33290341       3.17525266      -1.61931645       0.51956882       0.83894116       0.23478861      -0.05300047       0.21147638
Ni       1.07438500       3.15769911       7.39773825       0.19081961      -0.28798552      -0.92822110       0.14142835       0.00675553      -0.41287280
Ni       3.25893088       1.02913720       7.36087181       1.93083934      -1.46412940      -1.22441008      -0.49052362      -0.05805581       0.14588189
Ni       7.42070072       5.28660759       7.41336812       0.34529112      -0.92518569      -0.69043673       0.18685282      -0.38399747       0.45058509
Ni       7.38749544       7.44659700       5.32910685      -0.04909736       0.50817898       0.82958945      -0.33387474      -0.09160422      -0.69530979
Ni       5.30731128       3.12866796       3.15772518       0.12068637      -0.83671991       0.20758889      -0.24846922       0.01090444       0.53330216
Ni       5.31583695       1.05379310       1.06526163       0.69035075      -0.13735341      -0.60059483       0.06860557      -0.20568337      -0.41970346
O        7.39480308       1.15469385       1.08404562       0.43061557       0.64228012       0.15493576      -0.01712591       0.35607452       0.65003162
O        1.07079428       7.35180511       1.07470182      -0.01168401      -0.44123752      -0.64971150       0.82115445      -0.83463853       0.08116286
O        5.39732160       1.09145122       3.27394795      -0.33490688      -0.35420015       1.37533567       0.17069507       0.42614968      -0.52033387
O        3.06678052       7.44834027       3.17206907      -0.11793299       0.84123779       0.38648130       0.06091901      -0.54542021      -0.69669978
O        3.19961558       0.92876977       1.09760017      -0.77242621      -0.73670385       0.87991059      -0.10338696      -0.30921966      -0.40705901
O        0.96166418       3.18395726       1.12091934      -1.02332478       0.30829539       1.19330425      -0.46431030       1.37208362      -0.65767237
O        1.01710398       1.09459737       3.25691990       0.31048017       0.91002354      -0.38197973      -0.14609538      -0.10317319       0.16472190
O        3.20286846       3.20044748       3.41739847      -0.90316420      -0.82167350       1.88347390       0.19171249       0.22613623       0.30875978
O        7.33562835       5.38106962       5.33788030      -0.79521036       0.15555098      -0.42305970      -0.29255489      -0.30249160       0.14595583
O        1.29317897       3.08771297       5.31480389       1.30393681       0.05255578      -0.43931671      -0.53198237       0.21511047       0.20741162
O        5.30185062       5.26511834       7.38021267      -0.26084299      -0.11906528       0.27590001       0.54918852       1.23567229      -0.73200660
O        3.05231292       3.17053401       7.35431339       0.04277322       0.01110570      -1.29287710       0.60811201      -0.59460481      -1.53799002
O        3.18116986       5.12764429       5.36092889       0.30140030      -1.90048849       0.74847020       0.94122896      -1.08847668      -0.77966150
O        1.03552815       7.50561382       5.20030658       0.05061780       0.58295300      -0.00974452      -0.02582512       0.67845691      -0.09226299
O        1.09196293       5.12414912       7.52608685       0.80850821      -0.53378035       0.44127076      -0.62097180       0.69323121       0.29476995
O        3.29237277       7.40555529       7.35806314      -0.00470929      -0.77185185      -0.59558471      -0.25671795      -0.01393419       0.59539906
O        3.14802896       1.28345559       5.27376019       0.39922533       1.24327785      -1.43836410      -0.13003929      -0.18576379       0.64733338
O        5.31358935       7.31959061       5.33486440      -1.18127878       0.34204747      -0.44077277      -0.17375171       0.01439060       0.82625191
O        1.12396800       1.05881837       7.33356713      -0.22737297      -0.17950893      -0.70725947      -0.02967650       0.33725340      -0.71382324
O        7.42777748       7.38442654       7.33521748      -0.05842138       0.12455750      -0.03479760      -1.41711109      -0.56328953      -0.05984196
O        7.40772770       1.08269997       5.22422343      -0.27624513       1.08556016      -0.14803920       1.17874845      -0.02165822      -0.20653745
O        5.27561519       3.19387522       5.27534692      -0.72859751      -0.07324364       0.94871608      -2.18754354       1.50571745      -0.29743406
O        5.25814185       0.97029184       7.51084103       0.47176352       0.31409594      -0.71620242       0.08518763      -0.12966707      -0.30491694
O        7.48624048       3.20609185       7.41373817      -0.03666132      -0.44156650      -0.33373864       0.39029507       0.61111920       1.02032761
O        3.13131919       5.39577206       1.12717878      -0.21581277       0.49625726      -0.65009025      -0.62478597       0.10825101      -0.19971577
O        5.31031670       3.14660774       1.09869171       0.27941269       0.31640610      -0.67632793       0.63081856      -0.31121836       0.17977537
O        1.03560954       5.36905989       3.04108726      -0.86245892      -0.40004492      -0.25700559       0.61269666      -0.03400859       0.37081538
O        7.53917722       3.21115166       3.16086279       1.26523311      -0.60159844      -0.33133988      -1.43499644      -1.64771405      -1.39617921
O        7.37584664       5.21350310       0.98322135       0.48516084      -0.38111174       0.08791186       1.48637458      -0.61907197      -0.09435608
O        5.19881102       7.45594685       0.95838966       0.15244820      -0.91806167      -0.19122348      -0.23243273      -0.26426771      -0.19821901
O        5.39064439       5.38904702       3.27135209       0.50632917       1.09323267       0.86490595      -1.52911564      -1.17100709       1.52892100
O        7.46412436       7.46053350       3.25086588      -0.44805439       0.94582761      -0.22584769       0.59861679       0.91236979      -0.00862510
56
Lattice="8.48002 0.0 5.192514674852769e-16 -5.192514674852769e-16 8.48002 5.192514674852769e-16 0.0 0.0 8.48002" Properties=species:S:1:pos:R:3:momenta:R:3:forces:R:3 energy=-349.2793775193899 free_energy=-349.2793775193899 stress="0.45531925619161884 0.01129824325791865 -0.003027772661497512 0.01129824325791865 0.45160700665844855 0.0010095573219888053 -0.003027772661497512 0.0010095573219888053 0.44694644160448" pbc="T T T"
Fe       3.21104823       7.41143351       1.08906215       0.45523706       0.15027776       0.49113140      -0.05034203       0.11093664       0.17390422
Fe       1.05553529       5.28665053       1.09250498       0.48877190       0.10626914       0.03456786      -0.15403818       0.11142434      -1.21374381
Fe       3.14735045       3.15518193       5.31283726       0.50117809       0.69009823       1.40974734       1.96914454       0.74246482       1.00135073
Fe       1.06417189       1.11140049       5.25666159      -0.44216646       0.55937461       0.18039583      -0.12219543       0.39471593       0.10007325
Fe       5.32799629       7.31753751       7.33844648       0.59766937      -0.92318239      -1.11815120      -0.57984433       0.28688568      -0.02330707
Fe       5.31411918       5.16136733       5.39662197       0.27788678      -2.22611733       1.06073832      -0.63322549       0.07304235      -0.74806568
Fe       7.42697802       1.17166352       3.26472130       0.24875889       0.66279494       0.43015778       0.19456737      -0.92375504      -0.03751131
Fe       7.50963985       3.17116831       1.09704954       2.24353126       0.17730883       0.20315312      -0.22765611       0.30143652      -0.36097094
Fe       4.20516822       0.04125455       4.29766124      -0.23705516       0.87466069       1.68475731       0.43237458      -0.31096865      -0.67462274
Fe       2.14397137       2.13843185       2.11540686       1.05933768      -0.91564080       0.91184282      -0.20128431      -0.53621749       1.04212735
Fe       4.18616666       4.16002347      -0.02454109      -1.78177930      -2.16121696       0.12103414      -0.15893595       0.61414855      -0.05874426
Fe       2.10888067       6.39044831       6.20899545       0.58911606      -0.58611112      -1.14890286       0.87431656      -1.16235770       1.52323493
Fe      -0.02054512      -0.01416638      -0.01831104      -0.38454946       0.49517973      -1.50774215       0.48361539       0.43914520      -0.23889324