56
Lattice="8.48002 0.0 5.192514674852769e-16 -5.192514674852769e-16 8.48002 5.192514674852769e-16 0.0 0.0 8.48002" Properties=species:S:1:pos:R:3:momenta:R:3:forces:R:3 energy=-356.64806644064294 free_energy=-356.64806644064294 stress="0.48694333738127327 0.006036048157647411 0.003742691422259029 0.006036048157647411 0.48826963324029665 0.0024088564951380326 0.003742691422259029 0.0024088564951380326 0.48860737946641936" pbc="T T T"
Fe       3.18000750       7.42001750       1.06000250      -2.75180043      -1.58557877       0.10219145       0.28425519      -0.01219497       0.14119521
Fe       1.06000250       5.30001250       1.06000250      -0.57866914      -1.36867777       1.73907099      -0.10024578      -0.00257348       0.09938108
Fe       3.18000750       3.18000750       5.30001250      -0.73910209       1.80979068      -0.09733883      -1.31231320      -1.25378226       0.26648892
Fe       1.06000250       1.06000250       5.30001250      -0.82734887      -0.05125093      -1.23195060      -0.02572221      -0.04568069       0.06664879
Fe       5.30001250       7.42001750       7.42001750       0.47604513       1.08063467       0.16897198      -0.05945611       1.46098033       1.39419769
Fe       7.42001750       1.06000250       3.18000750       1.67646682      -1.11007910      -0.32585442      -0.31034642      -0.24738704       0.07255365
Fe       7.42001750       3.18000750       1.06000250       0.79706805      -0.92102121       1.50635144      -0.30304260       0.12120992      -0.17528813
Fe       4.24001000       0.00000000       4.24001000       1.55836780       1.90181473      -1.12835102      -0.32051021       0.72579119      -0.49303881
Fe       2.12000500       2.12000500       2.12000500      -0.83518667       1.09528098      -1.03191701       0.53659150       0.10310038      -0.29930327
Fe       4.24001000       4.24001000       0.00000000       0.73451828       0.85380017       2.43830420      -0.38797420      -0.76802329       1.09951630
Fe       2.12000500       6.36001500       6.36001500      -0.19339817       0.19651057      -2.23522758      -1.26934272       0.43248231       0.20856442
Fe       0.00000000       0.00000000       0.00000000      -2.41529802       1.83544225      -0.39999901      -0.15264824      -0.06909081      -0.24063847
Fe       6.36001500       2.12000500       6.36001500      -0.38847503      -1.39130719       0.75894974       0.32905156      -0.83957249       0.58859328
Fe      -0.00000000       4.24001000       4.24001000       1.61193308       0.33782616       0.63704820       0.91633364      -0.22513300      -0.33296956
Fe       6.36001500       6.36001500       2.12000500      -0.79971350      -0.38676736      -0.13632032       0.47446098       0.66069776      -0.73027036
Ni       1.06000250       7.42001750       3.18000750       1.18221219      -0.14652408      -0.72180136      -0.06032232      -0.14601968       0.14528229
Ni       3.18000750       5.30001250       3.18000750       0.41450357      -0.84361502       0.85558855      -0.85253102       0.32885461      -0.83856748
Ni       1.06000250       3.18000750       7.42001750      -1.25859423      -2.12878868      -0.03801674      -0.00172792       0.14788761      -0.19259389
Ni       3.18000750       1.06000250       7.42001750       0.52007632      -0.12393078      -0.47602742       0.24651231      -0.01941821      -0.20949507
Ni       7.42001750       5.30001250       7.42001750       0.25783949       1.82733164      -2.03533900       0.66698298      -0.27781062       1.01876535
Ni       7.42001750       7.42001750       5.30001250      -0.75281494      -1.65038139      -1.46635444       0.77318872       1.04780269      -0.35125365
Ni       5.30001250       3.18000750       3.18000750       0.70689169       0.32897673       1.75554136       0.39035531      -0.84311611      -0.86648658
Ni       5.30001250       1.06000250       1.06000250       0.51495110      -1.83518230      -1.39635186       0.17365758      -0.12057095       0.07489804
Mo       5.30001250       5.30001250       5.30001250      -1.80395310      -0.96077253       0.77649364       0.65931845      -0.05594316      -0.73872967
O        7.34293412       1.13708588       1.13708588      -0.10046384       1.06164996      -0.39988304       1.14218085      -0.40312591      -0.33639011
O        1.13708588       7.34293412       1.13708588      -0.36540672       0.23381959      -1.50441564      -0.46107529       0.36768899      -1.11278321
O        5.37709588       1.13708588       3.10292412       0.31400217      -0.17629286       0.08329792      -0.10006449      -0.67148509       0.76947880
O        3.10292412       7.34293412       3.10292412       0.19104539      -0.29209451      -1.15301515       0.41010597       0.28236196      -0.11002341
O        3.25709088       0.98291912       0.98291912       0.32047326       0.30510196      -0.71073078      -0.86662180       0.00099062       0.80653260
O        0.98291912       3.25709088       0.98291912       0.27043353      -0.09721392       0.83929352       0.13165631      -0.52003555       1.31240595
O        0.98291912       0.98291912       3.25709088       0.70333978       1.27314898      -0.70337911       0.52204279       1.28669463      -0.50904691
O        3.25709088       3.25709088       3.25709088       0.40871842       0.38172538       0.25246371      -0.83116890      -0.69480819       0.25045247
O        7.34293412       5.37709588       5.37709588       0.08251904       0.44934548       0.96292738      -1.70983061      -0.72846849      -0.77973483
O        1.13708588       3.10292412       5.37709588       0.46265819      -1.31334718      -0.43366317      -0.29326957       0.00163923      -0.85154281
O        5.37709588       5.37709588       7.34293412      -0.15456156      -0.02236623       0.29348445      -1.27468675      -0.83519233      -1.12324954
O        3.10292412       3.10292412       7.34293412       1.83463756       0.63648174       0.72742999       0.49441908       0.64445349      -0.35475540
O        3.25709088       5.22292912       5.22292912       0.30138773       0.83769174       1.07559411       1.31768925       0.58474644       1.21763713
O        0.98291912       7.49710088       5.22292912       0.00935951      -0.07739573      -0.39144220       0.77259289       0.14164510       0.46553701
O        0.98291912       5.22292912       7.49710088       0.30769044       0.27112581      -0.12099813       0.92267037       0.54510116       0.03284334
O        3.25709088       7.49710088       7.49710088       0.53175378      -0.26333492       1.52655784      -0.47527170      -0.98045302      -0.03529625
O        3.10292412       1.13708588       5.37709588      -0.08572922      -0.31369900      -0.53903774       0.36085457      -0.19382024      -0.72131304
O        5.37709588       7.34293412       5.37709588       0.00713958      -0.31728351      -0.11259326      -1.13388888      -1.20560325      -0.55243206
O        1.13708588       1.13708588       7.34293412       0.75293455      -0.20289974       0.45544174      -0.79764559      -0.76192659       0.27830414
O        7.34293412       7.34293412       7.34293412       0.18710279       0.56627575       0.46371976       0.29576463       0.61586242       0.58006342
O        7.49710088       0.98291912       5.22292912      -0.41947443       0.58680628       1.42372652      -0.29766551       0.95786710       0.13860608
O        5.22292912       3.25709088       5.22292912      -0.11456290       0.69718897      -0.18658849       0.41486679       1.23447615       1.06940678
O        5.22292912       0.98291912       7.49710088      -0.80081373      -0.58618419       0.70456183       0.36405372       0.27772011      -0.82468406
O        7.49710088       3.25709088       7.49710088       0.22446575      -0.54150562       1.13655954      -0.36888192      -0.30682905       0.18328583
O        3.10292412       5.37709588       1.13708588      -1.28549515       0.06937426       0.16811665       0.58191149       0.04636632      -1.19523366
O        5.37709588       3.10292412       1.13708588      -1.29266218       0.06566074       0.68168760       0.23964227       0.95066084      -0.73716886
O        1.13708588       5.37709588       3.10292412       1.46367565       0.23902127      -1.39275740      -0.69185002      -0.54958598      -0.15141079
O        7.34293412       3.10292412       3.10292412      -0.49427210      -0.35417769      -0.35114120       0.89727538       0.03685224       0.08869483
O        7.49710088       5.22292912       0.98291912      -0.54236159       0.13289295      -0.24285595      -0.27552069       0.08687263       0.89353567
O        5.22292912       7.49710088       0.98291912       0.45497784       0.49697569      -0.23824446       0.11624580      -1.19564585       0.28184688
O        5.22292912       5.22292912       3.25709088      -0.52774476      -0.03502467      -0.56338759       0.70022834       0.64177947       1.53970034
O        7.49710088       7.49710088       3.25709088       0.24871389      -0.47499825       0.23160881      -0.40128406       0.24071061      -0.22071641
56
Lattice="8.48002 0.0 5.192514674852769e-16 -5.192514674852769e-16 8.48002 5.192514674852769e-16 0.0 0.0 8.48002" Properties=species:S:1:pos:R:3:momenta:R:3:forces:R:3 energy=-357.64899206038467 free_energy=-357.64899206038467 stress="0.48344487088656896 0.007917473455987638 0.006749116315422872 0.007917473455987638 0.48843107242432765 0.0008376439188867384 0.006749116315422872 0.0008376439188867384 0.48474487277309664" pbc="T T T"
Fe       3.14141208       7.40082502       1.06315258      -1.95416007      -0.87060918      -0.21219716       0.29014631       0.24296943      -0.20341688
Fe       1.04474541       5.27824142       1.09226746      -0.90998197      -1.69959449       1.67992638      -0.05670296       0.13168074      -0.04026614
Fe       3.15052785       3.20340607       5.30556116      -2.55508044       0.91702650       0.20828568      -1.08702199      -1.56155671       0.07534547
Fe       1.05335566       1.06082174       5.28757045      -0.35772419       0.16250364      -0.12792329      -0.18554701       0.25285166      -0.10233667
Fe       5.30783340       7.44373309       7.43037602       0.23147373       1.63709421       1.18783912      -0.07486717       1.28118169       1.54102999
Fe       7.43883135       1.03863988       3.16608773       0.48419377      -1.37714133      -0.90675762      -0.08117723       0.06555777       0.14630024
Fe       7.42906349       3.16429374       1.07526576       0.23058370      -1.22782244       0.27844867      -0.17529985       0.00103712      -0.03278003
Fe       4.26333196       0.03674963       4.22753157       1.05236568       3.00253084      -0.14237140      -0.58276681       0.41304393      -0.50549269
Fe       2.10782236       2.13407360       2.10265436      -0.35380997       0.43189533      -0.95030175       1.47187736      -0.15843946       0.05681625
Fe       4.24708024       4.23531732       0.04646292      -0.04199528      -1.00735454       3.02021622      -0.54908983      -0.74176346       0.55703567
Fe       2.09974310       6.37462684       6.32740289      -1.63763720       1.26474015      -1.33739416      -1.16630522       0.87779123       1.70083611
Fe      -0.03779960       0.03577411      -0.01211673      -2.23202033       2.24789051      -1.22387414       0.44070470      -0.12449128      -0.34021482
Fe       6.36005640       2.09320703       6.37507700      -0.08603025      -1.16894728       1.30690777       0.02607163      -0.36156634       0.95131271
Fe       0.03588337       4.23968936       4.24432741       2.22840508      -0.21867060       0.20115119       0.47128395      -0.56154450      -0.56804873
Fe       6.35343969       6.34425846       2.11147786       0.08466034      -0.88617197      -0.65977030       0.49435706       0.98583541      -0.57168229
Ni       1.06917021       7.42447040       3.18192798       0.03352073       0.28822139       0.29328891      -0.05545670       0.02168950      -0.21768455
Ni       3.18063399       5.28979205       3.19123230      -0.16801353      -0.49225640      -0.04070453      -0.66253896       0.08600664      -1.18111006
Ni       1.04332492       3.14529773       7.42031436      -0.71182468      -1.70958007       0.16073476      -0.12134634       0.16978485      -0.31413611
Ni       3.19268160       1.05595423       7.41216871       1.06057989      -0.50540372      -0.56860772       0.34460926      -0.25828332       0.20817753
Ni       7.42550361       5.32758174       7.39990649       0.45863572       1.50028633      -0.56868152       0.46073488      -0.27038498       1.54592248
Ni       7.41108737       7.39948747       5.27717120      -0.30999597      -1.31289629      -1.06858752       0.53379789       1.47570290       0.10699587
Ni       5.31710381       3.17584680       3.20148208       1.23696296      -0.56684410       0.83529053       0.26357284      -0.92319675      -0.89920527
Ni       5.31300443       1.02593285       1.03597300       1.35940704      -2.09334191      -1.64423609      -0.25857156      -0.21913040      -0.01146634
Mo       5.28512684       5.29037751       5.29977570      -0.94224907      -1.44075966      -0.58813202       0.80387117      -0.91220304      -0.63762496
O        7.35871113       1.18369328       1.10247669       0.59663679       0.53988052      -0.54174527       0.92583077      -0.37634712      -0.25712008
O        1.10863789       7.35581972       1.02125881      -0.53748704       0.14741660      -2.29075953       0.12318231       0.21114550      -0.28655270
O        5.38774081       1.09885717       3.13041184       0.14081036      -0.86293392       0.80882883      -0.26385042      -0.37087600       0.81316614
O        3.13914969       7.35371230       3.02585570       0.92148394       0.45246458      -1.25089337       0.46756656       0.40432079       0.18629932
O        3.24314992       0.99797744       0.97665693      -0.81822009       0.06392621       0.43516353      -0.67814383      -0.61285846       0.62509681
O        1.01084799       3.25580037       1.07205647       0.42943813       0.13741522       1.52838236      -0.81030445       0.40749769       0.15935697
O        1.04979723       1.08670607       3.20977608       1.01025789       1.96727518      -0.54091000      -0.58366512       0.04905987       0.38850978
O        3.25458041       3.26432566       3.27685796      -0.43115217      -0.10206057       0.44194713      -0.51464751      -0.28032013       0.28085513
O        7.30228188       5.38157228       5.39243349      -1.18645650      -0.38370233      -0.39358469      -0.89628038      -0.72025476      -1.25060927
O        1.13268968       3.04695958       5.32884993      -0.50538206      -0.73182785      -1.02883237      -0.35246155       0.59634978      -0.11904606
O        5.34855549       5.35374874       7.34096965      -0.99377742      -0.80986243      -0.25966005      -1.02853748      -0.71149724      -0.57466162
O        3.23307785       3.15824380       7.36548733       2.27464163       1.04495488       0.12502770       0.01059917       0.34907829      -0.23055289
O        3.30117700       5.30460683       5.32049570       1.37767975       1.85626263       1.76917456       0.57432146       0.49616752       0.08928032
O        1.02559492       7.50244136       5.22383402       1.40470960       0.14747044       0.60080609       0.68507404      -0.22569797       0.28819825
O        1.00711935       5.27093564       7.47745770       0.57876400       1.18573185      -0.31276296       0.70528750       0.43786117      -0.27832595
O        3.25936329       7.46418298       7.56952855      -0.61735926      -0.64392220       0.61891600      -0.98687007      -0.93199342      -0.77783622
O        3.11190048       1.09114599       5.32604300       0.41798151      -0.79079932      -1.07260674       0.79903117      -0.44857631      -0.58138740
O        5.36344903       7.28965978       5.33502062      -0.44840566      -1.08598122      -1.05131559      -1.13774113      -0.43019537      -0.61563211
O        1.15680928       1.10165944       7.36136194      -0.19472953      -1.21598831       0.02070730      -0.84232462      -0.36284681       0.21617893
O        7.37574666       7.37927649       7.37808176       0.85354918       0.57355664       0.74040688      -0.23667917       0.04729673      -0.04946012
O        7.45819022       1.04991903       5.29367169      -0.50491420       1.28300293       1.11830173       0.66937750       0.00622114      -0.79491816
O        5.22142731       3.33213121       5.24825358       0.35275055       1.80933836       0.87657025       0.72515499       1.34388949       0.89400854
O        5.19361578       0.96708358       7.52142393      -0.23783155      -0.00562098       0.09951479       0.54268330       0.34061104      -0.98920568
O        7.49643632       3.23551918       7.57330180      -0.28942661      -0.13809281       1.31130576      -0.15781663       0.00548782       0.05610489
O        3.05488530       5.38245749       1.12161441       0.06728853      -0.13236125      -0.86393894       1.28608161       0.07201099      -1.06480577
O        5.29394211       3.13543149       1.14760264      -1.21723816       1.06117496      -0.12076567       0.61958130       1.01295156      -0.60603784
O        1.20903951       5.37592730       3.03720261       0.74203465      -0.49568867      -0.61639713      -1.47697732      -0.16851455       0.45635265
O        7.34704948       3.08174049       3.09722763       0.65066949      -0.05843734      -0.08211709       0.72018095       0.49543421      -0.12439031
O        7.44740701       5.23011855       0.97287101      -0.83640472       0.33637659       0.01432717       0.50268817      -0.17399917       1.07153950
O        5.25573459       7.49129679       0.96674481       0.49219774      -0.50519670      -0.05584067      -0.30628200      -1.22328082       0.65980309
O        5.21763291       5.23832126       3.26772271       0.24784025       0.60181410       0.90168631       0.84202914       0.55619463       1.36299123
O        7.50741130       7.47803465       3.27018338       0.05978528      -0.12038069      -0.06148632      -0.47042370       0.29310727      -0.21150616
56
Lattice="8.48002 0.0 5.192514674852769e-16 -5.192514674852769e-16 8.48002 5.192514674852769e-16 0.0 0.0 8.48002" Properties=species:S:1:pos:R:3:momenta:R:3:forces:R:3 energy=-357.5003868258448 free_energy=-357.5003868258448 stress="0.4623162430002647 0.012611880116748008 0.010563111680699197 0.012611880116748008 0.4591949607140413 0.000426898096161518 0.010563111680699197 0.000426898096161518 0.46132013042823855" pbc="T T T"
Fe       3.10408533       7.39060913       1.06047361      -2.47611251      -0.46663721      -0.20521006      -0.32182406      -0.14128904      -0.86985423
Fe       1.02738968       5.25305739       1.11643176      -0.74786304      -1.23946736       1.38758503       0.17827588       0.39190860      -0.53482865
Fe       3.10498519       3.21003829       5.31075389      -2.43942721       0.06614702       0.59960942      -0.91272041      -1.52708020       0.13033751
Fe       1.04299935       1.06365218       5.28198405      -1.05034606       0.32714122      -0.39704157      -0.38244130      -0.05927245      -0.28327982
Fe       5.30951573       7.48040344       7.45504872       0.03682613       2.18305636       2.06006155      -0.02916814       0.06515379       0.98718461
Fe       7.44004672       1.01502623       3.14925622      -0.02476505      -1.10115609      -1.00603814       0.43055700       0.49745869       0.21395093
Fe       7.43694941       3.14240689       1.08702315       0.59221983      -1.43926714       1.27017949       0.24606265      -0.07668712       0.30767270
Fe       4.27363686       0.08750342       4.22776857       0.29799857       1.92517352       0.28682168      -0.32576044      -2.49096332      -0.75308724
Fe       2.12840375       2.13792517       2.08898888       2.50024934       0.01643380      -0.68312454       1.61065846      -0.12152010       0.28099206
Fe       4.24462647       4.21727270       0.09431777      -0.79848200      -0.17757966       1.98173753      -1.06290698       1.08596911      -1.19122320
Fe       2.06546904       6.40504997       6.32278831      -2.20196578       1.59323020       0.82249923       0.43804781       0.46672002       3.09373941
Fe      -0.06700762       0.07093086      -0.03678705      -0.80385444       2.02437024      -1.82112234       1.64789057      -0.21961407      -0.12070599
Fe       6.35423470       2.07046487       6.40714726      -0.08140585      -0.80998580       2.30972123       0.06405609       0.47442388       1.23468773
Fe       0.08516797       4.23546199       4.25126397       3.11483631      -0.88281349       0.64472461      -0.23389697      -0.75228449      -1.08154826
Fe       6.35313429       6.33119972       2.08516502      -0.03432858      -0.27028073      -2.14376732       0.40302985       1.09764800      -0.03402283
Ni       1.07325459       7.43313835       3.18426516       0.32946402       0.42870921       0.26697727       0.00433281       0.31907443      -0.14049008
Ni       3.16481680       5.28334353       3.18078379      -0.93294336       0.03710044      -0.97356974      -0.39085921       0.23118202      -1.48992940
Ni       1.03776063       3.12452639       7.42556244      -0.10138741      -1.31286617      -0.06924203      -0.65326373      -0.30157120      -0.22639089
Ni       3.21900860       1.05622907       7.40016942       2.15120048       0.33889438      -0.20970658      -0.36843364      -0.52347138       0.39084937
Ni       7.43093051       5.35377282       7.39880092       0.03178339       1.65638628      -0.11300249       0.16574348      -0.29281173       1.74485542
Ni       7.41714939       7.38941527       5.26285761       0.44913273       0.20267240      -0.49162948      -0.08981834       1.44046189       0.33779703
Ni       5.34181090       3.16262662       3.21099649       1.70824020      -1.15123517       0.18897228       0.50693358      -0.90526115      -1.11640500
Ni       5.32105530       0.98402140       1.01033188       0.04875415      -2.70625759      -1.38183295      -0.18192850       0.13563437       0.11386817
Mo       5.27828927       5.27459221       5.29304800      -0.62668375      -1.48463215      -0.78443548       0.60182614       0.38563599       0.62906353
O        7.41766488       1.20214075       1.07491186       1.16696677       0.25888958      -0.26345685      -0.40283649       0.79926621       0.66494886
O        1.09181156       7.35937353       0.90401340       0.22333033      -0.35088374      -1.43946182       1.20437755      -0.13088182       1.20415502
O        5.36377744       1.05088253       3.19767121      -0.42229935      -0.31781497       1.02496973       1.28869839       1.47627045      -0.70265114
O        3.19660703       7.37145117       2.95849736       0.70331657       0.14523423      -0.83924483      -0.45618024       0.05229866       0.02615376
O        3.17729933       0.97023210       1.00952353      -0.89721344      -1.18237474       0.36452073       0.43082005      -1.60415050      -0.27721169
O        1.00921927       3.28215812       1.15413868      -0.63918780       0.82245159       0.98579543      -1.77561312       0.58370311      -1.24668077
O        1.09531518       1.18849527       3.20679598       0.22334664       1.19199430       0.52261824      -1.57376359      -1.51853777       0.74818926
O        3.21916175       3.26285077       3.31308793      -0.41815061       0.24403068       0.97864375       0.62127342       0.18446669       0.80088232
O        7.23206885       5.35245063       5.34329829      -0.74848610      -0.53261785      -1.27498574       0.92628532       0.02592719      -0.66006177
O        1.10033067       3.01440435       5.27001558      -0.36402201      -0.19815434      -0.69849027       0.71346880       1.31656852       1.14339239
O        5.28521922       5.29854801       7.31449183      -0.68299004      -0.72001464      -0.55090470       0.42563650       0.66544789      -0.76983955
O        3.35264121       3.22403250       7.33245274       0.92671250       0.74550640      -1.43654494      -1.78283255      -1.22385174      -1.83301219
O        3.37713261       5.41579671       5.41483676       0.47855699       1.49245129       0.87282368      -0.99206321      -1.07888971      -1.23882921
O        1.10914468       7.50502295       5.25792592       0.78850151      -0.00958945       0.38867515      -1.00206899       0.42912146      -1.53639248
O        1.04165881       5.33422150       7.45882718       0.34554323       0.64031188      -0.22116977      -0.49221811      -0.67598134      -0.05449386
O        3.20365034       7.38556285       7.59131472      -1.00229800      -1.21609991       0.11028608      -0.06626259       0.39025161      -0.22404701
O        3.17427261       1.04459556       5.24398826       1.27703618      -0.38849491      -1.28045271      -0.32000085       1.68211753       0.97257362
O        5.30301237       7.24101163       5.27161077      -1.27124270       0.04645039      -0.83814065       0.06724430       1.77178259       0.21715974
O        1.13000272       1.04515159       7.37671200      -0.71129283      -0.60534341       0.27324430      -0.10548965       1.26656575      -0.18905795
O        7.40242198       7.41128432       7.40258280      -0.38319729       0.06184741      -0.49012873      -1.86831931      -1.22661123      -1.36816738
O        7.46034725       1.13730004       5.34320038       0.60150801       1.16789886       0.11106709       0.66111288      -0.98714424      -1.56377042
O        5.24968438       3.43532912       5.31441287       0.38423910       0.78578358       0.97623558       0.11972482      -2.02032704       0.16412888
O        5.21519702       0.97548615       7.49687900       0.74813267       0.32048640      -0.82584257       0.04910901      -0.29658377      -0.22701889
O        7.48106289       3.23199781       7.64581770       0.16129115       0.12121738       1.36707240       0.57614652       0.26540380       0.06880520
O        3.07899447       5.38320650       1.04892237       0.57460610       0.45424203      -0.98463498       0.32423364       1.26279024       0.75009936
O        5.24830732       3.19817587       1.13162698       0.20720058       0.45741861      -0.05087055       2.82437119      -1.18057683       1.98684922
O        1.19976008       5.34342850       3.04261693      -0.89522187      -0.15556526       0.57929457      -1.11827767       0.88606052       0.76196277
O        7.40044961       3.07324267       3.07627001       0.71049141      -0.13908471      -0.83105369      -0.40096485       0.45044685      -0.47570535
O        7.42521998       5.23933374       1.00243496       0.33398748      -0.22769416       0.93102266       0.79077391      -0.62534612       0.70274741
O        5.25277953       7.43613740       0.97792114      -0.46725911      -1.31490677       0.27208785      -0.65206293      -0.60454920       0.30948736
O        5.24788559       5.28248300       3.33372334       0.60337323       1.02952420       1.06044733       0.65176750      -0.01382030      -0.04144251
O        7.49496253       7.45981006       3.25039933      -0.49641939      -0.38423644      -0.33258836      -0.01048230       0.49931800       0.26361414
56
Lattice="8.48002 0.0 5.192514674852769e-16 -5.192514674852769e-16 8.48002 5.192514674852769e-16 0.0 0.0 8.48002" Properties=species:S:1:pos:R:3:momenta:R:3:forces:R:3 energy=-358.71598139384855 free_energy=-358.71598139384855 stress="0.46379938576703106 0.006616349519227078 0.00982083960864059 0.006616349519227078 0.45933883477534 0.0008209582162570892 0.00982083960864059 0.0008209582162570892 0.4465318329338417" pbc="T T T"
Fe       3.06386090       7.37253824       1.05113686      -2.14271931      -1.49522403      -0.95514338       0.16088239       0.02285343      -1.40819276
Fe       1.01186636       5.24047159       1.14317433      -0.81425171      -0.57368015       1.97399461      -0.44079149       0.69536763      -0.70039145
Fe       3.05976105       3.20571611       5.32327943      -2.39712076      -0.83576251       0.90925460      -0.21358922      -1.59303318      -0.14764924
Fe       1.01054028       1.07632270       5.27507458      -2.31818217       1.16577161      -0.42518337      -0.21269602      -0.29236117      -0.42670299
Fe       5.31412788       7.51320260       7.48799634       0.15176550       1.35048222       1.53440474      -0.33175756      -1.02768729       0.33307994
Fe       7.44205377       0.99617190       3.13568922       0.17618170      -0.62857410      -0.53548030       0.50435717       0.69606633       0.58117453
Fe       7.45071481       3.11948753       1.10986129       0.70884499      -1.16608569       1.62618924       0.17311255       1.40742005       0.63751142
Fe       4.28176629       0.09293279       4.21425605       0.56410122      -1.61958535      -1.14690420      -0.00755579      -2.81536405      -0.92276830
Fe       2.16988803       2.13373653       2.07898619       2.36562890      -0.40335327      -0.52734926      -0.54683876      -0.02503692       1.19508328
Fe       4.22453883       4.22965098       0.11095662      -0.90704209       1.02860555      -0.24179315       0.25300351      -0.18481929      -1.44713056
Fe       2.03211079       6.43590237       6.36782276      -1.35468638       1.45141715       3.93521514       1.15302047       0.29032605       1.84654559
Fe      -0.06809686       0.10216625      -0.07332878       0.78375682       1.04601225      -1.74264913       0.90754728      -1.75033776       0.64376713
Fe       6.35194420       2.06126307       6.45624099       0.26475011       0.16964564       2.76041375       1.32719518       0.98817226      -0.16859801